04_40_40_1000_UDS_05
RE: 1000.000000
ITERACTIONS: 1280
VARIABLES = "X", "Y", "U", "V", "P"
ZONE F=POINT, I=40, J=40
0.012500,0.012500,0.000053,-0.000054,-0.000474
0.037500,0.012500,0.000122,-0.000019,-0.000487
0.062500,0.012500,0.000077,0.000061,-0.000517
0.087500,0.012500,-0.000134,0.000147,-0.000555
0.112500,0.012500,-0.000510,0.000225,-0.000594
0.137500,0.012500,-0.001029,0.000291,-0.000630
0.162500,0.012500,-0.001665,0.000343,-0.000659
0.187500,0.012500,-0.002391,0.000380,-0.000679
0.212500,0.012500,-0.003177,0.000404,-0.000688
0.237500,0.012500,-0.003996,0.000414,-0.000685
0.262500,0.012500,-0.004824,0.000412,-0.000671
0.287500,0.012500,-0.005636,0.000399,-0.000645
0.312500,0.012500,-0.006412,0.000376,-0.000608
0.337500,0.012500,-0.007133,0.000344,-0.000560
0.362500,0.012500,-0.007781,0.000304,-0.000502
0.387500,0.012500,-0.008343,0.000258,-0.000436
0.412500,0.012500,-0.008807,0.000206,-0.000362
0.437500,0.012500,-0.009163,0.000150,-0.000283
0.462500,0.012500,-0.009404,0.000092,-0.000200
0.487500,0.012500,-0.009526,0.000031,-0.000114
0.512500,0.012500,-0.009527,-0.000030,-0.000028
0.537500,0.012500,-0.009406,-0.000090,0.000058
0.562500,0.012500,-0.009166,-0.000149,0.000141
0.587500,0.012500,-0.008811,-0.000205,0.000220
0.612500,0.012500,-0.008349,-0.000256,0.000293
0.637500,0.012500,-0.007789,-0.000302,0.000359
0.662500,0.012500,-0.007143,-0.000342,0.000417
0.687500,0.012500,-0.006426,-0.000374,0.000465
0.712500,0.012500,-0.005653,-0.000397,0.000502
0.737500,0.012500,-0.004844,-0.000410,0.000528
0.762500,0.012500,-0.004021,-0.000412,0.000542
0.787500,0.012500,-0.003205,-0.000402,0.000544
0.812500,0.012500,-0.002424,-0.000378,0.000535
0.837500,0.012500,-0.001703,-0.000341,0.000516
0.862500,0.012500,-0.001069,-0.000291,0.000487
0.887500,0.012500,-0.000551,-0.000226,0.000452
0.912500,0.012500,-0.000172,-0.000151,0.000414
0.937500,0.012500,0.000048,-0.000069,0.000377
0.962500,0.012500,0.000109,0.000008,0.000347
0.987500,0.012500,0.000051,0.000051,0.000331
0.012500,0.037500,0.000019,-0.000129,-0.000459
0.037500,0.037500,-0.000067,0.000065,-0.000474
0.062500,0.037500,-0.000452,0.000401,-0.000499
0.087500,0.037500,-0.001205,0.000763,-0.000529
0.112500,0.037500,-0.002327,0.001100,-0.000561
0.137500,0.037500,-0.003784,0.001387,-0.000589
0.162500,0.037500,-0.005523,0.001616,-0.000612
0.187500,0.037500,-0.007479,0.001783,-0.000628
0.212500,0.037500,-0.009586,0.001888,-0.000634
0.237500,0.037500,-0.011776,0.001934,-0.000631
0.262500,0.037500,-0.013985,0.001924,-0.000617
0.287500,0.037500,-0.016152,0.001863,-0.000592
0.312500,0.037500,-0.018222,0.001755,-0.000558
0.337500,0.037500,-0.020145,0.001606,-0.000514
0.362500,0.037500,-0.021877,0.001420,-0.000462
0.387500,0.037500,-0.023378,0.001204,-0.000401
0.412500,0.037500,-0.024618,0.000963,-0.000335
0.437500,0.037500,-0.025571,0.000703,-0.000263
0.462500,0.037500,-0.026217,0.000428,-0.000188
0.487500,0.037500,-0.026544,0.000146,-0.000110
0.512500,0.037500,-0.026546,-0.000140,-0.000032
0.537500,0.037500,-0.026222,-0.000422,0.000046
0.562500,0.037500,-0.025580,-0.000697,0.000121
0.587500,0.037500,-0.024632,-0.000957,0.000193
0.612500,0.037500,-0.023397,-0.001198,0.000259
0.637500,0.037500,-0.021901,-0.001413,0.000319
0.662500,0.037500,-0.020176,-0.001598,0.000371
0.687500,0.037500,-0.018260,-0.001747,0.000415
0.712500,0.037500,-0.016198,-0.001855,0.000449
0.737500,0.037500,-0.014039,-0.001916,0.000474
0.762500,0.037500,-0.011840,-0.001925,0.000488
0.787500,0.037500,-0.009660,-0.001880,0.000491
0.812500,0.037500,-0.007564,-0.001775,0.000485
0.837500,0.037500,-0.005616,-0.001610,0.000470
0.862500,0.037500,-0.003883,-0.001385,0.000447
0.887500,0.037500,-0.002427,-0.001104,0.000419
0.912500,0.037500,-0.001299,-0.000777,0.000388
0.937500,0.037500,-0.000532,-0.000428,0.000358
0.962500,0.037500,-0.000121,-0.000103,0.000334
0.987500,0.037500,-0.000001,0.000101,0.000319
0.012500,0.062500,-0.000081,-0.000070,-0.000431
0.037500,0.062500,-0.000460,0.000464,-0.000450
0.062500,0.062500,-0.001312,0.001232,-0.000475
0.087500,0.062500,-0.002683,0.002048,-0.000503
0.112500,0.062500,-0.004565,0.002812,-0.000530
0.137500,0.062500,-0.006911,0.003472,-0.000555
0.162500,0.062500,-0.009650,0.004002,-0.000574
0.187500,0.062500,-0.012693,0.004391,-0.000586
0.212500,0.062500,-0.015947,0.004636,-0.000591
0.237500,0.062500,-0.019316,0.004741,-0.000587
0.262500,0.062500,-0.022705,0.004713,-0.000573
0.287500,0.062500,-0.026026,0.004561,-0.000550
0.312500,0.062500,-0.029195,0.004296,-0.000518
0.337500,0.062500,-0.032138,0.003930,-0.000477
0.362500,0.062500,-0.034786,0.003476,-0.000429
0.387500,0.062500,-0.037083,0.002947,-0.000374
0.412500,0.062500,-0.038979,0.002357,-0.000313
0.437500,0.062500,-0.040436,0.001720,-0.000247
0.462500,0.062500,-0.041425,0.001048,-0.000178
0.487500,0.062500,-0.041926,0.000356,-0.000107
0.512500,0.062500,-0.041929,-0.000343,-0.000035
0.537500,0.062500,-0.041434,-0.001034,0.000036
0.562500,0.062500,-0.040451,-0.001706,0.000105
0.587500,0.062500,-0.039001,-0.002342,0.000171
0.612500,0.062500,-0.037112,-0.002932,0.000231
0.637500,0.062500,-0.034824,-0.003459,0.000287
0.662500,0.062500,-0.032185,-0.003912,0.000335
0.687500,0.062500,-0.029253,-0.004277,0.000375
0.712500,0.062500,-0.026095,-0.004541,0.000407
0.737500,0.062500,-0.022787,-0.004692,0.000430
0.762500,0.062500,-0.019411,-0.004720,0.000444
0.787500,0.062500,-0.016055,-0.004616,0.000448
0.812500,0.062500,-0.012814,-0.004373,0.000444
0.837500,0.062500,-0.009781,-0.003989,0.000432
0.862500,0.062500,-0.007050,-0.003467,0.000413
0.887500,0.062500,-0.004706,-0.002820,0.000389
0.912500,0.062500,-0.002818,-0.002074,0.000362
0.937500,0.062500,-0.001432,-0.001283,0.000335
0.962500,0.062500,-0.000549,-0.000540,0.000311
0.987500,0.062500,-0.000116,-0.000015,0.000293
0.012500,0.087500,-0.000208,0.000215,-0.000395
0.037500,0.087500,-0.000940,0.001283,-0.000421
0.062500,0.087500,-0.002315,0.002634,-0.000448
0.087500,0.087500,-0.004342,0.004037,-0.000476
0.112500,0.087500,-0.006991,0.005348,-0.000502
0.137500,0.087500,-0.010198,0.006484,-0.000525
0.162500,0.087500,-0.013872,0.007399,-0.000542
0.187500,0.087500,-0.017909,0.008070,-0.000553
0.212500,0.087500,-0.022194,0.008491,-0.000556
0.237500,0.087500,-0.026607,0.008665,-0.000552
0.262500,0.087500,-0.031033,0.008602,-0.000538
0.287500,0.087500,-0.035359,0.008317,-0.000516
0.312500,0.087500,-0.039482,0.007830,-0.000486
0.337500,0.087500,-0.043305,0.007160,-0.000448
0.362500,0.087500,-0.046744,0.006332,-0.000403
0.387500,0.087500,-0.049724,0.005368,-0.000352
0.412500,0.087500,-0.052184,0.004294,-0.000295
0.437500,0.087500,-0.054074,0.003132,-0.000234
0.462500,0.087500,-0.055356,0.001909,-0.000170
0.487500,0.087500,-0.056005,0.000648,-0.000104
0.512500,0.087500,-0.056009,-0.000625,-0.000038
0.537500,0.087500,-0.055368,-0.001885,0.000028
0.562500,0.087500,-0.054094,-0.003107,0.000092
0.587500,0.087500,-0.052213,-0.004268,0.000153
0.612500,0.087500,-0.049762,-0.005341,0.000210
0.637500,0.087500,-0.046792,-0.006303,0.000261
0.662500,0.087500,-0.043364,-0.007130,0.000306
0.687500,0.087500,-0.039553,-0.007797,0.000344
0.712500,0.087500,-0.035444,-0.008283,0.000374
0.737500,0.087500,-0.031132,-0.008566,0.000396
0.762500,0.087500,-0.026721,-0.008629,0.000409
0.787500,0.087500,-0.022323,-0.008457,0.000414
0.812500,0.087500,-0.018052,-0.008041,0.000411
0.837500,0.087500,-0.014027,-0.007377,0.000400
0.862500,0.087500,-0.010361,-0.006475,0.000383
0.887500,0.087500,-0.007157,-0.005358,0.000361
0.912500,0.087500,-0.004503,-0.004076,0.000335
0.937500,0.087500,-0.002458,-0.002711,0.000309
0.962500,0.087500,-0.001048,-0.001404,0.000282
0.987500,0.087500,-0.000251,-0.000382,0.000258
0.012500,0.112500,-0.000345,0.000764,-0.000357
0.037500,0.112500,-0.001447,0.002561,-0.000390
0.062500,0.112500,-0.003364,0.004642,-0.000422
0.087500,0.112500,-0.006059,0.006745,-0.000452
0.112500,0.112500,-0.009473,0.008696,-0.000478
0.137500,0.112500,-0.013518,0.010382,-0.000501
0.162500,0.112500,-0.018087,0.011739,-0.000517
0.187500,0.112500,-0.023056,0.012731,-0.000527
0.212500,0.112500,-0.028291,0.013346,-0.000530
0.237500,0.112500,-0.033656,0.013585,-0.000525
0.262500,0.112500,-0.039016,0.013464,-0.000512
0.287500,0.112500,-0.044241,0.013004,-0.000491
0.312500,0.112500,-0.049210,0.012233,-0.000463
0.337500,0.112500,-0.053811,0.011181,-0.000427
0.362500,0.112500,-0.057944,0.009884,-0.000384
0.387500,0.112500,-0.061524,0.008378,-0.000335
0.412500,0.112500,-0.064477,0.006699,-0.000282
0.437500,0.112500,-0.066744,0.004886,-0.000225
0.462500,0.112500,-0.068282,0.002977,-0.000164
0.487500,0.112500,-0.069060,0.001010,-0.000102
0.512500,0.112500,-0.069064,-0.000975,-0.000040
0.537500,0.112500,-0.068295,-0.002941,0.000022
0.562500,0.112500,-0.066766,-0.004849,0.000083
0.587500,0.112500,-0.064509,-0.006661,0.000140
0.612500,0.112500,-0.061566,-0.008337,0.000193
0.637500,0.112500,-0.057998,-0.009841,0.000242
0.662500,0.112500,-0.053877,-0.011136,0.000284
0.687500,0.112500,-0.049289,-0.012185,0.000320
0.712500,0.112500,-0.044334,-0.012954,0.000349
0.737500,0.112500,-0.039124,-0.013413,0.000370
0.762500,0.112500,-0.033779,-0.013534,0.000383
0.787500,0.112500,-0.028429,-0.013297,0.000388
0.812500,0.112500,-0.023208,-0.012689,0.000385
0.837500,0.112500,-0.018251,-0.011708,0.000375
0.862500,0.112500,-0.013690,-0.010369,0.000359
0.887500,0.112500,-0.009647,-0.008709,0.000337
0.912500,0.112500,-0.006227,-0.006797,0.000311
0.937500,0.112500,-0.003514,-0.004746,0.000282
0.962500,0.112500,-0.001560,-0.002732,0.000251
0.987500,0.112500,-0.000389,-0.001022,0.000220
0.012500,0.137500,-0.000481,0.001587,-0.000320
0.037500,0.137500,-0.001954,0.004306,-0.000360
0.062500,0.137500,-0.004409,0.007262,-0.000397
0.087500,0.137500,-0.007769,0.010174,-0.000430
0.112500,0.137500,-0.011939,0.012844,-0.000459
0.137500,0.137500,-0.016806,0.015141,-0.000482
0.162500,0.137500,-0.022240,0.016979,-0.000499
0.187500,0.137500,-0.028098,0.018313,-0.000509
0.212500,0.137500,-0.034230,0.019126,-0.000512
0.237500,0.137500,-0.040482,0.019419,-0.000507
0.262500,0.137500,-0.046705,0.019210,-0.000494
0.287500,0.137500,-0.052752,0.018529,-0.000474
0.312500,0.137500,-0.058490,0.017413,-0.000446
0.337500,0.137500,-0.063793,0.015905,-0.000412
0.362500,0.137500,-0.068550,0.014052,-0.000371
0.387500,0.137500,-0.072665,0.011905,-0.000324
0.412500,0.137500,-0.076057,0.009517,-0.000273
0.437500,0.137500,-0.078659,0.006939,-0.000218
0.462500,0.137500,-0.080423,0.004227,-0.000160
0.487500,0.137500,-0.081315,0.001434,-0.000101
0.512500,0.137500,-0.081320,-0.001386,-0.000041
0.537500,0.137500,-0.080437,-0.004179,0.000018
0.562500,0.137500,-0.078682,-0.006890,0.000076
0.587500,0.137500,-0.076090,-0.009465,0.000131
0.612500,0.137500,-0.072709,-0.011851,0.000182
0.637500,0.137500,-0.068605,-0.013995,0.000228
0.662500,0.137500,-0.063860,-0.015844,0.000269
0.687500,0.137500,-0.058570,-0.017349,0.000304
0.712500,0.137500,-0.052846,-0.018463,0.000331
0.737500,0.137500,-0.046812,-0.019143,0.000352
0.762500,0.137500,-0.040604,-0.019353,0.000364
0.787500,0.137500,-0.034366,-0.019064,0.000369
0.812500,0.137500,-0.028247,-0.018259,0.000367
0.837500,0.137500,-0.022400,-0.016939,0.000357
0.862500,0.137500,-0.016972,-0.015124,0.000340
0.887500,0.137500,-0.012107,-0.012862,0.000317
0.912500,0.137500,-0.007930,-0.010240,0.000289
0.937500,0.137500,-0.004551,-0.007395,0.000256
0.962500,0.137500,-0.002059,-0.004529,0.000221
0.987500,0.137500,-0.000522,-0.001933,0.000182
0.012500,0.162500,-0.000614,0.002680,-0.000286
0.037500,0.162500,-0.002447,0.006512,-0.000333
0.062500,0.162500,-0.005431,0.010487,-0.000376
0.087500,0.162500,-0.009444,0.014315,-0.000413
0.112500,0.162500,-0.014359,0.017782,-0.000444
0.137500,0.162500,-0.020032,0.020738,-0.000469
0.162500,0.162500,-0.026310,0.023088,-0.000487
0.187500,0.162500,-0.033029,0.024777,-0.000498
0.212500,0.162500,-0.040021,0.025782,-0.000501
0.237500,0.162500,-0.047116,0.026108,-0.000497
0.262500,0.162500,-0.054151,0.025776,-0.000484
0.287500,0.162500,-0.060967,0.024825,-0.000464
0.312500,0.162500,-0.067417,0.023303,-0.000437
0.337500,0.162500,-0.073367,0.021266,-0.000403
0.362500,0.162500,-0.078695,0.018776,-0.000363
0.387500,0.162500,-0.083298,0.015900,-0.000317
0.412500,0.162500,-0.087087,0.012705,-0.000267
0.437500,0.162500,-0.089992,0.009261,-0.000214
0.462500,0.162500,-0.091960,0.005640,-0.000158
0.487500,0.162500,-0.092955,0.001911,-0.000100
0.512500,0.162500,-0.092959,-0.001852,-0.000042
0.537500,0.162500,-0.091973,-0.005579,0.000016
0.562500,0.162500,-0.090014,-0.009199,0.000072
0.587500,0.162500,-0.087118,-0.012640,0.000125
0.612500,0.162500,-0.083338,-0.015832,0.000175
0.637500,0.162500,-0.078746,-0.018706,0.000221
0.662500,0.162500,-0.073429,-0.021192,0.000261
0.687500,0.162500,-0.067492,-0.023225,0.000294
0.712500,0.162500,-0.061054,-0.024745,0.000322
0.737500,0.162500,-0.054251,-0.025695,0.000342
0.762500,0.162500,-0.047229,-0.026028,0.000354
0.787500,0.162500,-0.040145,-0.025707,0.000359
0.812500,0.162500,-0.033164,-0.024712,0.000356
0.837500,0.162500,-0.026454,-0.023041,0.000345
0.862500,0.162500,-0.020182,-0.020719,0.000327
0.887500,0.162500,-0.014508,-0.017804,0.000302
0.912500,0.162500,-0.009586,-0.014396,0.000272
0.937500,0.162500,-0.005554,-0.010649,0.000235
0.962500,0.162500,-0.002537,-0.006785,0.000193
0.987500,0.162500,-0.000649,-0.003104,0.000146
0.012500,0.187500,-0.000742,0.004033,-0.000257
0.037500,0.187500,-0.002925,0.009167,-0.000312
0.062500,0.187500,-0.006424,0.014307,-0.000360
0.087500,0.187500,-0.011079,0.019158,-0.000402
0.112500,0.187500,-0.016727,0.023495,-0.000437
0.137500,0.187500,-0.023193,0.027160,-0.000464
0.162500,0.187500,-0.030299,0.030046,-0.000483
0.187500,0.187500,-0.037859,0.032094,-0.000495
0.212500,0.187500,-0.045686,0.033280,-0.000498
0.237500,0.187500,-0.053594,0.033611,-0.000494
0.262500,0.187500,-0.061406,0.033117,-0.000481
0.287500,0.187500,-0.068952,0.031844,-0.000461
0.312500,0.187500,-0.076073,0.029854,-0.000434
0.337500,0.187500,-0.082628,0.027218,-0.000400
0.362500,0.187500,-0.088487,0.024012,-0.000360
0.387500,0.187500,-0.093540,0.020321,-0.000315
0.412500,0.187500,-0.097696,0.016230,-0.000266
0.437500,0.187500,-0.100879,0.011826,-0.000213
0.462500,0.187500,-0.103033,0.007199,-0.000157
0.487500,0.187500,-0.104121,0.002438,-0.000100
0.512500,0.187500,-0.104125,-0.002367,-0.000042
0.537500,0.187500,-0.103044,-0.007127,0.000015
0.562500,0.187500,-0.100898,-0.011753,0.000071
0.587500,0.187500,-0.097723,-0.016154,0.000124
0.612500,0.187500,-0.093575,-0.020242,0.000173
0.637500,0.187500,-0.088531,-0.023929,0.000218
0.662500,0.187500,-0.082681,-0.027131,0.000258
0.687500,0.187500,-0.076137,-0.029764,0.000292
0.712500,0.187500,-0.069025,-0.031751,0.000319
0.737500,0.187500,-0.061490,-0.033023,0.000339
0.762500,0.187500,-0.053689,-0.033520,0.000351
0.787500,0.187500,-0.045790,-0.033195,0.000356
0.812500,0.187500,-0.037972,-0.032021,0.000352
0.837500,0.187500,-0.030419,-0.029994,0.000341
0.862500,0.187500,-0.023316,-0.027140,0.000321
0.887500,0.187500,-0.016848,-0.023523,0.000294
0.912500,0.187500,-0.011193,-0.019253,0.000260
0.937500,0.187500,-0.006522,-0.014495,0.000219
0.962500,0.187500,-0.002995,-0.009483,0.000171
0.987500,0.187500,-0.000769,-0.004521,0.000116
0.012500,0.212500,-0.000867,0.005639,-0.000235
0.037500,0.212500,-0.003389,0.012260,-0.000297
0.062500,0.212500,-0.007392,0.018710,-0.000352
0.087500,0.212500,-0.012679,0.024691,-0.000398
0.112500,0.212500,-0.019050,0.029974,-0.000436
0.137500,0.212500,-0.026300,0.034393,-0.000466
0.162500,0.212500,-0.034223,0.037837,-0.000487
0.187500,0.212500,-0.042610,0.040245,-0.000500
0.212500,0.212500,-0.051254,0.041596,-0.000504
0.237500,0.212500,-0.059954,0.041902,-0.000499
0.262500,0.212500,-0.068518,0.041200,-0.000487
0.287500,0.212500,-0.076764,0.039551,-0.000466
0.312500,0.212500,-0.084525,0.037030,-0.000438
0.337500,0.212500,-0.091652,0.033723,-0.000404
0.362500,0.212500,-0.098011,0.029726,-0.000363
0.387500,0.212500,-0.103486,0.025138,-0.000318
0.412500,0.212500,-0.107983,0.020066,-0.000267
0.437500,0.212500,-0.111423,0.014615,-0.000214
0.462500,0.212500,-0.113749,0.008893,-0.000158
0.487500,0.212500,-0.114923,0.003009,-0.000100
0.512500,0.212500,-0.114926,-0.002929,-0.000042
0.537500,0.212500,-0.113757,-0.008812,0.000016
0.562500,0.212500,-0.111437,-0.014532,0.000072
0.587500,0.212500,-0.108003,-0.019980,0.000125
0.612500,0.212500,-0.103513,-0.025049,0.000175
0.637500,0.212500,-0.098044,-0.029632,0.000221
0.662500,0.212500,-0.091692,-0.033625,0.000261
0.687500,0.212500,-0.084573,-0.036929,0.000296
0.712500,0.212500,-0.076819,-0.039448,0.000324
0.737500,0.212500,-0.068581,-0.041097,0.000344
0.762500,0.212500,-0.060025,-0.041801,0.000356
0.787500,0.212500,-0.051332,-0.041503,0.000361
0.812500,0.212500,-0.042694,-0.040167,0.000357
0.837500,0.212500,-0.034311,-0.037782,0.000344
0.862500,0.212500,-0.026389,-0.034374,0.000323
0.887500,0.212500,-0.019137,-0.030008,0.000293
0.912500,0.212500,-0.012760,-0.024800,0.000255
0.937500,0.212500,-0.007460,-0.018920,0.000209
0.962500,0.212500,-0.003436,-0.012609,0.000155
0.987500,0.212500,-0.000884,-0.006175,0.000092
0.012500,0.237500,-0.000988,0.007490,-0.000221
0.037500,0.237500,-0.003843,0.015781,-0.000291
0.062500,0.237500,-0.008343,0.023687,-0.000351
0.087500,0.237500,-0.014255,0.030908,-0.000403
0.112500,0.237500,-0.021343,0.037212,-0.000445
0.137500,0.237500,-0.029372,0.042430,-0.000477
0.162500,0.237500,-0.038105,0.046452,-0.000500
0.187500,0.237500,-0.047310,0.049218,-0.000513
0.212500,0.237500,-0.056758,0.050713,-0.000518
0.237500,0.237500,-0.066233,0.050957,-0.000513
0.262500,0.237500,-0.075527,0.050001,-0.000500
0.287500,0.237500,-0.084450,0.047918,-0.000478
0.312500,0.237500,-0.092826,0.044800,-0.000449
0.337500,0.237500,-0.100498,0.040752,-0.000413
0.362500,0.237500,-0.107330,0.035887,-0.000372
0.387500,0.237500,-0.113202,0.030326,-0.000324
0.412500,0.237500,-0.118017,0.024192,-0.000273
0.437500,0.237500,-0.121696,0.017611,-0.000218
0.462500,0.237500,-0.124182,0.010712,-0.000160
0.487500,0.237500,-0.125435,0.003621,-0.000101
0.512500,0.237500,-0.125437,-0.003533,-0.000041
0.537500,0.237500,-0.124187,-0.010623,0.000018
0.562500,0.237500,-0.121704,-0.017520,0.000075
0.587500,0.237500,-0.118029,-0.024098,0.000131
0.612500,0.237500,-0.113218,-0.030228,0.000182
0.637500,0.237500,-0.107350,-0.035786,0.000229
0.662500,0.237500,-0.100523,-0.040647,0.000271
0.687500,0.237500,-0.092855,-0.044692,0.000307
0.712500,0.237500,-0.084483,-0.047808,0.000335
0.737500,0.237500,-0.075565,-0.049891,0.000357
0.762500,0.237500,-0.066275,-0.050850,0.000370
0.787500,0.237500,-0.056804,-0.050615,0.000374
0.812500,0.237500,-0.047359,-0.049137,0.000370
0.837500,0.237500,-0.038156,-0.046397,0.000357
0.862500,0.237500,-0.029423,-0.042414,0.000334
0.887500,0.237500,-0.021392,-0.037252,0.000301
0.912500,0.237500,-0.014299,-0.031027,0.000259
0.937500,0.237500,-0.008379,-0.023914,0.000208
0.962500,0.237500,-0.003867,-0.016153,0.000147
0.987500,0.237500,-0.000996,-0.008055,0.000077
0.012500,0.262500,-0.001107,0.009582,-0.000216
0.037500,0.262500,-0.004293,0.019725,-0.000294
0.062500,0.262500,-0.009288,0.029232,-0.000361
0.087500,0.262500,-0.015822,0.037803,-0.000417
0.112500,0.262500,-0.023626,0.045204,-0.000462
0.137500,0.262500,-0.032431,0.051267,-0.000497
0.162500,0.262500,-0.041970,0.055884,-0.000522
0.187500,0.262500,-0.051985,0.059003,-0.000536
0.212500,0.262500,-0.062228,0.060617,-0.000540
0.237500,0.262500,-0.072463,0.060760,-0.000535
0.262500,0.262500,-0.082470,0.059498,-0.000521
0.287500,0.262500,-0.092048,0.056921,-0.000498
0.312500,0.262500,-0.101013,0.053139,-0.000467
0.337500,0.262500,-0.109205,0.048278,-0.000429
0.362500,0.262500,-0.116483,0.042471,-0.000385
0.387500,0.262500,-0.122728,0.035859,-0.000336
0.412500,0.262500,-0.127839,0.028587,-0.000281
0.437500,0.262500,-0.131741,0.020800,-0.000224
0.462500,0.262500,-0.134374,0.012645,-0.000164
0.487500,0.262500,-0.135700,0.004270,-0.000102
0.512500,0.262500,-0.135701,-0.004177,-0.000040
0.537500,0.262500,-0.134375,-0.012551,0.000022
0.562500,0.262500,-0.131743,-0.020703,0.000082
0.587500,0.262500,-0.127842,-0.028487,0.000139
0.612500,0.262500,-0.122731,-0.035757,0.000193
0.637500,0.262500,-0.116488,-0.042365,0.000243
0.662500,0.262500,-0.109211,-0.048168,0.000287
0.687500,0.262500,-0.101020,-0.053026,0.000324
0.712500,0.262500,-0.092056,-0.056806,0.000355
0.737500,0.262500,-0.082480,-0.059384,0.000378
0.762500,0.262500,-0.072474,-0.060651,0.000392
0.787500,0.262500,-0.062239,-0.060518,0.000397
0.812500,0.262500,-0.051997,-0.058921,0.000393
0.837500,0.262500,-0.041981,-0.055830,0.000378
0.862500,0.262500,-0.032441,-0.051253,0.000354
0.887500,0.262500,-0.023635,-0.045249,0.000318
0.912500,0.262500,-0.015828,-0.037930,0.000273
0.937500,0.262500,-0.009291,-0.029469,0.000216
0.962500,0.262500,-0.004294,-0.020109,0.000149
0.987500,0.262500,-0.001107,-0.010159,0.000071
0.012500,0.287500,-0.001227,0.011913,-0.000222
0.037500,0.287500,-0.004744,0.024091,-0.000307
0.062500,0.287500,-0.010235,0.035347,-0.000380
0.087500,0.287500,-0.017395,0.045378,-0.000441
0.112500,0.287500,-0.025917,0.053951,-0.000491
0.137500,0.287500,-0.035498,0.060901,-0.000528
0.162500,0.287500,-0.045842,0.066129,-0.000554
0.187500,0.287500,-0.056663,0.069591,-0.000569
0.212500,0.287500,-0.067690,0.071296,-0.000573
0.237500,0.287500,-0.078670,0.071294,-0.000566
0.262500,0.287500,-0.089371,0.069670,-0.000550
0.287500,0.287500,-0.099580,0.066534,-0.000525
0.312500,0.287500,-0.109109,0.062020,-0.000492
0.337500,0.287500,-0.117792,0.056274,-0.000451
0.362500,0.287500,-0.125489,0.049451,-0.000404
0.387500,0.287500,-0.132079,0.041715,-0.000351
0.412500,0.287500,-0.137465,0.033230,-0.000294
0.437500,0.287500,-0.141570,0.024164,-0.000233
0.462500,0.287500,-0.144337,0.014683,-0.000169
0.487500,0.287500,-0.145729,0.004954,-0.000104
0.512500,0.287500,-0.145728,-0.004858,-0.000038
0.537500,0.287500,-0.144334,-0.014586,0.000027
0.562500,0.287500,-0.141564,-0.024066,0.000091
0.587500,0.287500,-0.137457,-0.033129,0.000152
0.612500,0.287500,-0.132070,-0.041610,0.000209
0.637500,0.287500,-0.125477,-0.049343,0.000262
0.662500,0.287500,-0.117779,-0.056162,0.000309
0.687500,0.287500,-0.109093,-0.061906,0.000349
0.712500,0.287500,-0.099562,-0.066419,0.000382
0.737500,0.287500,-0.089351,-0.069556,0.000407
0.762500,0.287500,-0.078648,-0.071186,0.000423
0.787500,0.287500,-0.067666,-0.071198,0.000429
0.812500,0.287500,-0.056636,-0.069511,0.000425
0.837500,0.287500,-0.045813,-0.066077,0.000410
0.862500,0.287500,-0.035468,-0.060891,0.000384
0.887500,0.287500,-0.025886,-0.054000,0.000346
0.912500,0.287500,-0.017364,-0.045508,0.000297
0.937500,0.287500,-0.010206,-0.035587,0.000235
0.962500,0.287500,-0.004722,-0.024475,0.000162
0.987500,0.287500,-0.001218,-0.012485,0.000076
0.012500,0.312500,-0.001348,0.014485,-0.000240
0.037500,0.312500,-0.005200,0.028883,-0.000333
0.062500,0.312500,-0.011195,0.042036,-0.000412
0.087500,0.312500,-0.018988,0.053638,-0.000478
0.112500,0.312500,-0.028236,0.063456,-0.000531
0.137500,0.312500,-0.038597,0.071335,-0.000571
0.162500,0.312500,-0.049745,0.077183,-0.000598
0.187500,0.312500,-0.061365,0.080975,-0.000613
0.212500,0.312500,-0.073165,0.082737,-0.000616
0.237500,0.312500,-0.084872,0.082540,-0.000608
0.262500,0.312500,-0.096242,0.080493,-0.000589
0.287500,0.312500,-0.107054,0.076732,-0.000561
0.312500,0.312500,-0.117115,0.071413,-0.000524
0.337500,0.312500,-0.126257,0.064708,-0.000480
0.362500,0.312500,-0.134340,0.056797,-0.000429
0.387500,0.312500,-0.141245,0.047866,-0.000372
0.412500,0.312500,-0.146877,0.038100,-0.000310
0.437500,0.312500,-0.151164,0.027688,-0.000244
0.462500,0.312500,-0.154050,0.016815,-0.000176
0.487500,0.312500,-0.155500,0.005667,-0.000106
0.512500,0.312500,-0.155498,-0.005572,-0.000036
0.537500,0.312500,-0.154042,-0.016719,0.000034
0.562500,0.312500,-0.151151,-0.027590,0.000102
0.587500,0.312500,-0.146860,-0.037999,0.000167
0.612500,0.312500,-0.141222,-0.047762,0.000229
0.637500,0.312500,-0.134311,-0.056690,0.000286
0.662500,0.312500,-0.126224,-0.064598,0.000337
0.687500,0.312500,-0.117076,-0.071301,0.000382
0.712500,0.312500,-0.107009,-0.076619,0.000418
0.737500,0.312500,-0.096192,-0.080382,0.000446
0.762500,0.312500,-0.084817,-0.082435,0.000464
0.787500,0.312500,-0.073105,-0.082643,0.000472
0.812500,0.312500,-0.061301,-0.080899,0.000469
0.837500,0.312500,-0.049677,-0.077136,0.000454
0.862500,0.312500,-0.038527,-0.071328,0.000426
0.887500,0.312500,-0.028165,-0.063508,0.000386
0.912500,0.312500,-0.018922,-0.053768,0.000333
0.937500,0.312500,-0.011137,-0.042271,0.000266
0.962500,0.312500,-0.005158,-0.029256,0.000186
0.987500,0.312500,-0.001332,-0.015036,0.000093
0.012500,0.337500,-0.001472,0.017302,-0.000271
0.037500,0.337500,-0.005668,0.034109,-0.000371
0.062500,0.337500,-0.012178,0.049310,-0.000457
0.087500,0.337500,-0.020616,0.062592,-0.000528
0.112500,0.337500,-0.030598,0.073727,-0.000584
0.137500,0.337500,-0.041746,0.082569,-0.000626
0.162500,0.337500,-0.053697,0.089044,-0.000654
0.187500,0.337500,-0.066109,0.093144,-0.000668
0.212500,0.337500,-0.078665,0.094921,-0.000670
0.237500,0.337500,-0.091076,0.094473,-0.000659
0.262500,0.337500,-0.103084,0.091937,-0.000638
0.287500,0.337500,-0.114463,0.087478,-0.000606
0.312500,0.337500,-0.125015,0.081280,-0.000565
0.337500,0.337500,-0.134575,0.073544,-0.000516
0.362500,0.337500,-0.143003,0.064473,-0.000459
0.387500,0.337500,-0.150185,0.054279,-0.000397
0.412500,0.337500,-0.156031,0.043168,-0.000330
0.437500,0.337500,-0.160472,0.031350,-0.000259
0.462500,0.337500,-0.163459,0.019029,-0.000185
0.487500,0.337500,-0.164958,0.006407,-0.000109
0.512500,0.337500,-0.164954,-0.006315,-0.000033
0.537500,0.337500,-0.163447,-0.018936,0.000042
0.562500,0.337500,-0.160452,-0.031255,0.000116
0.587500,0.337500,-0.156003,-0.043071,0.000187
0.612500,0.337500,-0.150148,-0.054179,0.000254
0.637500,0.337500,-0.142958,-0.064371,0.000317
0.662500,0.337500,-0.134522,-0.073439,0.000373
0.687500,0.337500,-0.124954,-0.081174,0.000422
0.712500,0.337500,-0.114393,-0.087371,0.000463
0.737500,0.337500,-0.103005,-0.091833,0.000494
0.762500,0.337500,-0.090989,-0.094375,0.000516
0.787500,0.337500,-0.078570,-0.094833,0.000526
0.812500,0.337500,-0.066008,-0.093074,0.000524
0.837500,0.337500,-0.053591,-0.089001,0.000509
0.862500,0.337500,-0.041638,-0.082566,0.000481
0.887500,0.337500,-0.030492,-0.073779,0.000439
0.912500,0.337500,-0.020517,-0.062717,0.000382
0.937500,0.337500,-0.012092,-0.049533,0.000311
0.962500,0.337500,-0.005606,-0.034461,0.000225
0.987500,0.337500,-0.001449,-0.017817,0.000123
0.012500,0.362500,-0.001600,0.020371,-0.000316
0.037500,0.362500,-0.006151,0.039783,-0.000425
0.062500,0.362500,-0.013192,0.057182,-0.000517
0.087500,0.362500,-0.022292,0.072253,-0.000593
0.112500,0.362500,-0.033021,0.084773,-0.000652
0.137500,0.362500,-0.044961,0.094608,-0.000695
0.162500,0.362500,-0.057713,0.101705,-0.000723
0.187500,0.362500,-0.070903,0.106083,-0.000736
0.212500,0.362500,-0.084193,0.107825,-0.000736
0.237500,0.362500,-0.097275,0.107062,-0.000722
0.262500,0.362500,-0.109881,0.103963,-0.000696
0.287500,0.362500,-0.121779,0.098729,-0.000660
0.312500,0.362500,-0.132772,0.091576,-0.000613
0.337500,0.362500,-0.142695,0.082733,-0.000558
0.362500,0.362500,-0.151416,0.072434,-0.000496
0.387500,0.362500,-0.158827,0.060913,-0.000427
0.412500,0.362500,-0.164846,0.048401,-0.000353
0.437500,0.362500,-0.169409,0.035125,-0.000275
0.462500,0.362500,-0.172473,0.021307,-0.000195
0.487500,0.362500,-0.174010,0.007167,-0.000113
0.512500,0.362500,-0.174004,-0.007081,-0.000030
0.537500,0.362500,-0.172457,-0.021221,0.000052
0.562500,0.362500,-0.169382,-0.035037,0.000133
0.587500,0.362500,-0.164808,-0.048311,0.000211
0.612500,0.362500,-0.158779,-0.060821,0.000285
0.637500,0.362500,-0.151356,-0.072339,0.000353
0.662500,0.362500,-0.142624,-0.082636,0.000415
0.687500,0.362500,-0.132689,-0.091477,0.000470
0.712500,0.362500,-0.121684,-0.098631,0.000516
0.737500,0.362500,-0.109775,-0.103868,0.000553
0.762500,0.362500,-0.097158,-0.106972,0.000578
0.787500,0.362500,-0.084066,-0.107746,0.000592
0.812500,0.362500,-0.070769,-0.106021,0.000592
0.837500,0.362500,-0.057573,-0.101668,0.000579
0.862500,0.362500,-0.044819,-0.094607,0.000550
0.887500,0.362500,-0.032882,-0.084823,0.000507
0.912500,0.362500,-0.022162,-0.072370,0.000447
0.937500,0.362500,-0.013082,-0.057388,0.000370
0.962500,0.362500,-0.006073,-0.040104,0.000277
0.987500,0.362500,-0.001571,-0.020837,0.000168
0.012500,0.387500,-0.001733,0.023701,-0.000378
0.037500,0.387500,-0.006654,0.045921,-0.000495
0.062500,0.387500,-0.014246,0.065673,-0.000593
0.087500,0.387500,-0.024026,0.082639,-0.000674
0.112500,0.387500,-0.035517,0.096604,-0.000736
0.137500,0.387500,-0.048254,0.107452,-0.000780
0.162500,0.387500,-0.061800,0.115156,-0.000808
0.187500,0.387500,-0.075751,0.119771,-0.000819
0.212500,0.387500,-0.089741,0.121416,-0.000815
0.237500,0.387500,-0.103450,0.120261,-0.000797
0.262500,0.387500,-0.116599,0.116519,-0.000766
0.287500,0.387500,-0.128953,0.110426,-0.000723
0.312500,0.387500,-0.140320,0.102238,-0.000670
0.337500,0.387500,-0.150539,0.092216,-0.000608
0.362500,0.387500,-0.159488,0.080623,-0.000539
0.387500,0.387500,-0.167068,0.067718,-0.000462
0.412500,0.387500,-0.173207,0.053756,-0.000381
0.437500,0.387500,-0.177852,0.038981,-0.000295
0.462500,0.387500,-0.180965,0.023632,-0.000207
0.487500,0.387500,-0.182524,0.007941,-0.000117
0.512500,0.387500,-0.182517,-0.007863,-0.000026
0.537500,0.387500,-0.180945,-0.023554,0.000064
0.562500,0.387500,-0.177819,-0.038902,0.000153
0.587500,0.387500,-0.173161,-0.053675,0.000238
0.612500,0.387500,-0.167008,-0.067636,0.000320
0.637500,0.387500,-0.159414,-0.080538,0.000396
0.662500,0.387500,-0.150451,-0.092129,0.000466
0.687500,0.387500,-0.140217,-0.102151,0.000527
0.712500,0.387500,-0.128837,-0.110340,0.000580
0.737500,0.387500,-0.116469,-0.116435,0.000622
0.762500,0.387500,-0.103307,-0.120183,0.000653
0.787500,0.387500,-0.089587,-0.121347,0.000671
0.812500,0.387500,-0.075587,-0.119718,0.000675
0.837500,0.387500,-0.061630,-0.115125,0.000663
0.862500,0.387500,-0.048082,-0.107453,0.000635