input
RE=10.000000
ITERATIONS=5001
CPU_TIME=4.565000
RESIDUALS= 0.000000 0.014518 0.010255 0.010217 0.010217 0.010217 0.010217 0.010217 0.010217 0.010217 0.010217 0.010217 0.010217 0.010217 0.010217 0.010217 0.010217 0.010217 0.010217 0.010217 0.010217 0.010217 0.010217 0.010217 0.010217 0.010217 0.010217 0.010217 0.010217 0.010217 0.010217 0.010217 0.010217 0.010217 0.010217 0.010217 0.010217 0.010217 0.010217 0.010217 0.010217 0.010217 0.010217 0.010217 0.010217 0.010217 0.010217 0.010217 0.010217 0.010217 0.010217 0.010217 0.010217 0.010217 0.010217 0.010217 0.010217 0.010217 0.010217 0.010217 0.010217 0.010217 0.010217 0.010217 0.010217 0.010217 0.010217 0.010217 0.010217 0.010217 0.010217 0.010217 0.010217 0.010217 0.010217 0.010217 0.010217 0.010217 0.010217 0.010217 0.010217 0.010217 0.010217 0.010217 0.010217 0.010217 0.010217 0.010217 0.010217 0.010217 0.010217 0.010217 0.010217 0.010217 0.010217 0.010217 0.010217 0.010217 0.010217 0.010217 0.010217
VARIABLES="X", "Y", "U", "V", "P"
ZONE F=POINT, I=10, J=10
0.050000,0.050000,-0.001040,0.001030,0.371468
0.150000,0.050000,-0.006481,0.004375,0.361265
0.250000,0.050000,-0.016447,0.005537,0.359866
0.350000,0.050000,-0.026445,0.004412,0.371723
0.450000,0.050000,-0.032628,0.001738,0.394432
0.550000,0.050000,-0.032837,-0.001560,0.421703
0.650000,0.050000,-0.026865,-0.004442,0.445310
0.750000,0.050000,-0.016694,-0.005741,0.457904
0.850000,0.050000,-0.006442,-0.004502,0.456257
0.950000,0.050000,-0.000966,-0.000970,0.445391
0.050000,0.150000,-0.004840,0.006908,0.381760
0.150000,0.150000,-0.020613,0.019669,0.369910
0.250000,0.150000,-0.043886,0.023399,0.368627
0.350000,0.150000,-0.065706,0.018284,0.378396
0.450000,0.150000,-0.078878,0.007153,0.396723
0.550000,0.150000,-0.079303,-0.006405,0.418729
0.650000,0.150000,-0.066613,-0.018321,0.438089
0.750000,0.150000,-0.044546,-0.024142,0.448764
0.850000,0.150000,-0.020725,-0.020211,0.447247
0.950000,0.150000,-0.004775,-0.006723,0.434525
0.050000,0.250000,-0.008383,0.020174,0.384422
0.150000,0.250000,-0.033531,0.047345,0.367231
0.250000,0.250000,-0.068064,0.053477,0.365042
0.350000,0.250000,-0.099061,0.040958,0.375185
0.450000,0.250000,-0.117492,0.016020,0.394141
0.550000,0.250000,-0.118444,-0.013958,0.417183
0.650000,0.250000,-0.101258,-0.040705,0.438208
0.750000,0.250000,-0.070067,-0.055075,0.450543
0.850000,0.250000,-0.034420,-0.048872,0.448586
0.950000,0.250000,-0.008515,-0.020031,0.429816
0.050000,0.350000,-0.011896,0.040555,0.370253
0.150000,0.350000,-0.046040,0.086346,0.347870
0.250000,0.350000,-0.090678,0.093607,0.346509
0.350000,0.350000,-0.129276,0.070362,0.360544
0.450000,0.350000,-0.152067,0.027777,0.385133
0.550000,0.350000,-0.154136,-0.022756,0.415225
0.650000,0.350000,-0.134326,-0.068963,0.444206
0.750000,0.350000,-0.095930,-0.096466,0.463671
0.850000,0.350000,-0.049112,-0.090154,0.464474
0.950000,0.350000,-0.012698,-0.041263,0.439757
0.050000,0.450000,-0.015810,0.068438,0.329800
0.150000,0.450000,-0.058679,0.135653,0.304548
0.250000,0.450000,-0.111077,0.141312,0.308392
0.350000,0.450000,-0.154001,0.104121,0.331433
0.450000,0.450000,-0.179046,0.041794,0.367256
0.550000,0.450000,-0.182743,-0.031068,0.410831
0.650000,0.450000,-0.163413,-0.099851,0.455387
0.750000,0.450000,-0.121773,-0.145675,0.490484
0.850000,0.450000,-0.065886,-0.143968,0.501653
0.950000,0.450000,-0.018038,-0.072017,0.474415
0.050000,0.550000,-0.020467,0.104962,0.249491
0.150000,0.550000,-0.070668,0.192456,0.227890
0.250000,0.550000,-0.124585,0.190812,0.245794
0.350000,0.550000,-0.163993,0.136898,0.285432
0.450000,0.550000,-0.185936,0.055945,0.338796
0.550000,0.550000,-0.190942,-0.036576,0.402416
0.650000,0.550000,-0.177339,-0.127335,0.471388
0.750000,0.550000,-0.141154,-0.196076,0.534551
0.850000,0.550000,-0.083251,-0.207767,0.570668
0.950000,0.550000,-0.024822,-0.114893,0.551386
0.050000,0.650000,-0.025937,0.151586,0.105968
0.150000,0.650000,-0.078357,0.248689,0.106899
0.250000,0.650000,-0.119309,0.229441,0.157244
0.350000,0.650000,-0.139683,0.157998,0.225019
0.450000,0.650000,-0.148226,0.065270,0.302397
0.550000,0.650000,-0.152370,-0.036812,0.391146
0.650000,0.650000,-0.151709,-0.141423,0.492759
0.750000,0.650000,-0.136580,-0.233361,0.600120
0.850000,0.650000,-0.093733,-0.271448,0.687343
0.950000,0.650000,-0.031923,-0.171635,0.703865
0.050000,0.750000,-0.029783,0.207018,-0.147252
0.150000,0.750000,-0.068157,0.283736,-0.066857
0.250000,0.750000,-0.067130,0.234265,0.052868
0.350000,0.750000,-0.044866,0.151232,0.164409
0.450000,0.750000,-0.026441,0.062094,0.269794
0.550000,0.750000,-0.025623,-0.030373,0.383694
0.650000,0.750000,-0.044481,-0.129728,0.521115
0.750000,0.750000,-0.071211,-0.233516,0.689284
0.850000,0.750000,-0.075438,-0.308735,0.872021
0.950000,0.750000,-0.033416,-0.236900,0.994751
0.050000,0.850000,-0.013026,0.247810,-0.609669
0.150000,0.850000,0.013136,0.251425,-0.282102
0.250000,0.850000,0.100130,0.176479,-0.030534
0.350000,0.850000,0.182853,0.103844,0.135631
0.450000,0.850000,0.232858,0.041360,0.261525
0.550000,0.850000,0.240961,-0.018438,0.388534
0.650000,0.850000,0.203754,-0.085897,0.551388
0.750000,0.850000,0.123787,-0.171573,0.787003
0.850000,0.850000,0.030803,-0.268403,1.134312
0.950000,0.850000,-0.006217,-0.276564,1.541045
0.050000,0.950000,0.129587,0.129594,-1.461573
0.150000,0.950000,0.364440,0.105279,-0.414382
0.250000,0.950000,0.533857,0.064163,-0.000805
0.350000,0.950000,0.632559,0.034558,0.180994
0.450000,0.950000,0.680318,0.013211,0.289549
0.550000,0.950000,0.687793,-0.005724,0.397761
0.650000,0.950000,0.654070,-0.027973,0.549117
0.750000,0.950000,0.564819,-0.061225,0.814960
0.850000,0.950000,0.393219,-0.110326,1.349496
0.950000,0.950000,0.141438,-0.141438,2.513089
